 Gaussian 16, Revision A.03,
 Gaussian 16:  ES64L-G16RevA.03 25-Dec-2016

 ----------------------------
 # freq b3lyp/gen pseudo=read
 ----------------------------

 -------------
 f10g1_TS_1_m1
 -------------
 Symbolic Z-matrix:
 Charge =  0 Multiplicity = 1

                         Standard orientation:
 ---------------------------------------------------------------------
 Center     Atomic      Atomic             Coordinates (Angstroms)
 Number     Number       Type             X           Y           Z
 ---------------------------------------------------------------------
      1          1           0       -8.309835    3.803489    1.215504
      2          1           0       -8.326214    3.735058   -1.268948
      3          1           0       -4.475428    3.985631    1.186635
      4          1           0       -4.491809    3.917012   -1.297766
      5          1           0       -0.641076    4.167601    1.158124
      6          1           0       -0.657475    4.099267   -1.326295
      7          1           0        3.193318    4.349817    1.129216
      8          1           0        3.176940    4.281273   -1.355205
      9          1           0        7.027748    4.531787    1.100652
     10          1           0        7.011363    4.463423   -1.383701
     11          1           0       10.219000    3.358272   -0.130157
     12          1           0      -11.394609    2.331791    0.031671
     13          1           0      -10.118603    0.727207   -2.990758
     14          1           0       -6.284384    0.909279   -3.019036
     15          1           0       -2.450107    1.091287   -3.047739
     16          1           0        1.384572    1.273286   -3.076776
     17          1           0        5.219014    1.455443   -3.104934
     18          1           0        9.053393    1.637522   -3.134218
     19          1           0      -10.078408    0.895567    3.122009
     20          1           0       -6.244106    1.077675    3.093044
     21          1           0       -2.409470    1.259834    3.064078
     22          1           0        1.424740    1.441604    3.036046
     23          1           0        5.259521    1.623873    3.006606
     24          1           0        9.093817    1.805726    2.978314
     25          1           0      -11.225404   -0.753545    1.533356
     26          1           0      -11.244002   -0.831730   -1.299578
     27          1           0       10.366502    0.271862    1.371912
     28          1           0       10.348038    0.193622   -1.461113
     29         14           0       -8.270056    2.962358   -0.008398
     30         14           0       -4.453656    3.184140   -0.035809
     31         14           0       -0.557950    3.349189   -0.062852
     32         14           0        3.208316    3.514208   -0.092320
     33         14           0        7.090046    3.727391   -0.121236
     34         14           0      -10.135873    1.603939    0.072837
     35         14           0       -6.255073    1.721806    0.003914
     36         14           0       -2.461697    2.081521   -0.003129
     37         14           0        1.377670    2.027180   -0.048152
     38         14           0        5.221064    2.402752   -0.095288
     39         14           0        9.028444    2.483529   -0.089632
     40         14           0      -10.044391    0.113938    1.828625
     41         14           0      -10.104358    0.055896   -1.651195
     42         14           0       -6.309499    0.252455    1.843585
     43         14           0       -6.117101    0.080934   -1.738222
     44         14           0       -2.385211    0.587685    1.758090
     45         14           0       -2.382031    0.536717   -1.685937
     46         14           0        1.412246    0.547760    1.803825
     47         14           0        1.516372    0.440958   -1.806350
     48         14           0        5.256640    0.950532    1.691422
     49         14           0        5.329470    0.805178   -1.774238
     50         14           0        9.082288    0.968212    1.696984
     51         14           0        9.111876    0.950088   -1.811056
     52         14           0       -8.118310   -1.216608    1.438437
     53         14           0       -8.087694   -0.790747   -0.818695
     54         14           0       -4.253876   -0.660590    1.278155
     55         14           0       -4.026725   -1.001822   -1.030127
     56         14           0       -0.552241   -0.699266    1.140009
     57         14           0       -0.469822   -0.668221   -1.193868
     58         14           0        3.462937   -0.422650    1.254402
     59         14           0        3.570877   -0.573951   -1.102890
     60         14           0        7.118024   -0.295687    0.974504
     61         14           0        7.274603   -0.403043   -1.345463
     62         83           0        4.704134   -2.646854    0.436388
     63         83           0       -1.830415   -2.916084   -0.471449
 ---------------------------------------------------------------------

 SCF Done:  E(RB3LYP) =  -6439.82285631     A.U. after   32 cycles

 The electronic state is 1-A.
 Alpha  occ. eigenvalues --  -66.13194 -66.13151 -66.11714 -66.11660 -66.11558
 Alpha  occ. eigenvalues --  -66.11538 -66.11269 -66.11082 -66.10787 -66.10645
 Alpha  occ. eigenvalues --  -66.10563 -66.10472 -66.09618 -66.09585 -66.09370
 Alpha  occ. eigenvalues --  -66.09370 -66.09224 -66.08684 -66.08681 -66.08661
 Alpha  occ. eigenvalues --  -66.08573 -66.07655  -5.30449  -5.30295  -5.29176
 Alpha  occ. eigenvalues --   -5.28824  -5.28724  -5.28720  -5.28620  -5.28145
 Alpha  occ. eigenvalues --   -5.28120  -5.27969  -5.27920  -5.27670  -5.27175
 Alpha  occ. eigenvalues --   -5.27035  -5.26969  -5.26606  -5.26479  -5.26221
 Alpha  occ. eigenvalues --   -5.26206  -5.26119  -5.26042  -5.24998  -3.66577
 Alpha  occ. eigenvalues --   -3.66141  -3.66136  -3.66082  -3.66007  -3.65973
 Alpha  occ. eigenvalues --   -3.65011  -3.64974  -3.64888  -3.64658  -3.64624
 Alpha  occ. eigenvalues --   -3.64580  -3.64576  -3.64556  -3.64541  -3.64517
 Alpha  occ. eigenvalues --   -3.64480  -3.64445  -3.64437  -3.64409  -3.64335
 Alpha  occ. eigenvalues --   -3.64148  -3.64110  -3.63862  -3.63801  -3.63791
 Alpha  occ. eigenvalues --   -3.63787  -3.63772  -3.63771  -3.63747  -3.63720
 Alpha  occ. eigenvalues --   -3.63703  -3.63646  -3.63549  -3.63441  -3.63368
 Alpha  occ. eigenvalues --   -3.62992  -3.62952  -3.62898  -3.62881  -3.62802
 Alpha  occ. eigenvalues --   -3.62774  -3.62763  -3.62724  -3.62702  -3.62446
 Alpha  occ. eigenvalues --   -3.62402  -3.62324  -3.62302  -3.62245  -3.62196
 Alpha  occ. eigenvalues --   -3.62047  -3.62037  -3.61995  -3.61988  -3.61958
 Alpha  occ. eigenvalues --   -3.61949  -3.61932  -3.61878  -3.61852  -3.61843
 Alpha  occ. eigenvalues --   -3.61823  -3.61794  -3.60828  -3.60750  -3.60719
 Alpha  occ. eigenvalues --   -0.64945  -0.63684  -0.63156  -0.60827  -0.60496
 Alpha  occ. eigenvalues --   -0.60065  -0.58547  -0.57581  -0.57153  -0.56548
 Alpha  occ. eigenvalues --   -0.55804  -0.55442  -0.55255  -0.54790  -0.54434
 Alpha  occ. eigenvalues --   -0.53571  -0.53368  -0.52556  -0.52280  -0.50923
 Alpha  occ. eigenvalues --   -0.50377  -0.48911  -0.47273  -0.47021  -0.45754
 Alpha  occ. eigenvalues --   -0.45627  -0.44447  -0.43582  -0.43257  -0.42894
 Alpha  occ. eigenvalues --   -0.42096  -0.41686  -0.40901  -0.40383  -0.39735
 Alpha  occ. eigenvalues --   -0.39320  -0.38623  -0.38237  -0.38068  -0.37432
 Alpha  occ. eigenvalues --   -0.37378  -0.37319  -0.37153  -0.36564  -0.36556
 Alpha  occ. eigenvalues --   -0.36443  -0.35635  -0.35007  -0.34982  -0.34684
 Alpha  occ. eigenvalues --   -0.33116  -0.32815  -0.32564  -0.31667  -0.31425
 Alpha  occ. eigenvalues --   -0.30306  -0.30128  -0.29828  -0.29548  -0.29442
 Alpha  occ. eigenvalues --   -0.29311  -0.29205  -0.28885  -0.28575  -0.28418
 Alpha  occ. eigenvalues --   -0.28190  -0.27921  -0.27734  -0.27667  -0.27397
 Alpha  occ. eigenvalues --   -0.27142  -0.26699  -0.26404  -0.26249  -0.25194
 Alpha  occ. eigenvalues --   -0.23944  -0.23800  -0.22978  -0.22519  -0.22272
 Alpha  occ. eigenvalues --   -0.21194  -0.21088  -0.20310  -0.19091  -0.16498
 Alpha virt. eigenvalues --   -0.15303  -0.13736  -0.12684  -0.12328  -0.09663
 Alpha virt. eigenvalues --   -0.08291  -0.07441  -0.06468  -0.06203  -0.05152
 Alpha virt. eigenvalues --   -0.04261  -0.03792  -0.03521  -0.03297  -0.03281

 Mulliken charges:
               1
     1  H   -0.066103
     2  H   -0.067652
     3  H   -0.071238
     4  H   -0.074024
     5  H   -0.074100
     6  H   -0.074967
     7  H   -0.075385
     8  H   -0.074960
     9  H   -0.076555
    10  H   -0.075986
    11  H   -0.064919
    12  H   -0.063760
    13  H    0.017423
    14  H    0.024830
    15  H    0.029421
    16  H    0.019813
    17  H    0.025149
    18  H    0.003474
    19  H    0.005285
    20  H    0.027721
    21  H    0.033486
    22  H    0.020248
    23  H    0.026587
    24  H    0.003647
    25  H    0.006404
    26  H    0.026993
    27  H    0.009676
    28  H    0.007225
    29  Si   0.182578
    30  Si   0.233802
    31  Si   0.240686
    32  Si   0.234015
    33  Si   0.168583
    34  Si   0.105220
    35  Si  -0.171432
    36  Si  -0.085827
    37  Si  -0.173586
    38  Si  -0.086130
    39  Si   0.091554
    40  Si  -0.040527
    41  Si  -0.036209
    42  Si  -0.022017
    43  Si   0.009208
    44  Si  -0.012415
    45  Si   0.011240
    46  Si   0.026687
    47  Si   0.053870
    48  Si   0.003158
    49  Si  -0.037864
    50  Si  -0.034329
    51  Si  -0.043251
    52  Si  -0.122651
    53  Si   0.232792
    54  Si   0.014458
    55  Si  -0.064748
    56  Si   0.034330
    57  Si  -0.166375
    58  Si  -0.093131
    59  Si  -0.025744
    60  Si   0.104751
    61  Si  -0.081623
    62  Bi   0.041725
    63  Bi   0.081469
 Sum of Mulliken charges =  -0.00000

 Dipole moment (field-independent basis, Debye):
    X=             -5.4174    Y=             -1.0757    Z=             -0.6569  Tot=              5.5621
 Quadrupole moment (field-independent basis, Debye-Ang):
   XX=           -483.3282   YY=           -476.1197   ZZ=           -477.1177
   XY=             -6.1831   XZ=             20.5574   YZ=              2.5262

  Exact polarizability:3565.720  64.104 954.327 -98.430  -4.937 793.406
 Approx polarizability:******** -46.3002664.910********  10.0142919.212

 ******    1 imaginary frequencies (negative Signs) ******

                      1                      2                      3
                      A                      A                      A
 Frequencies --    -64.5123                25.9174                35.9265
 Red. masses --     73.3519               181.0283               174.0068
 Frc consts  --      0.1799                 0.0716                 0.1323
 IR Inten    --      4.7116                 4.8300                 0.1583

                      4                      5                      6
                      A                      A                      A
 Frequencies --     37.1803                64.9016                73.6916
 Red. masses --    160.3329                45.9035               112.8296
 Frc consts  --      0.1306                 0.1139                 0.3610
 IR Inten    --      9.4671               307.4293                 4.1179

                      7                      8                      9
                      A                      A                      A
 Frequencies --     77.3679                92.1660               112.0071
 Red. masses --     51.3750                33.7891                28.2564
 Frc consts  --      0.1812                 0.1691                 0.2089
 IR Inten    --    283.6816                78.2921                58.3608

                     10                     11                     12
                      A                      A                      A
 Frequencies --    130.8978               135.8689               142.0816
 Red. masses --     28.1282                28.1263                28.0355
 Frc consts  --      0.2840                 0.3059                 0.3335
 IR Inten    --     52.9488                44.9536                16.8527

                     13                     14                     15
                      A                      A                      A
 Frequencies --    145.4852               146.3616               156.1249
 Red. masses --     28.1741                27.9915                27.9978
 Frc consts  --      0.3513                 0.3533                 0.4021
 IR Inten    --      1.7645                14.0532                 2.7330

                     16                     17                     18
                      A                      A                      A
 Frequencies --    158.8549               160.8608               163.8862
 Red. masses --     28.1221                28.1408                28.4530
 Frc consts  --      0.4181                 0.4290                 0.4503
 IR Inten    --     11.0483                 1.6632                 0.6617

                     19                     20                     21
                      A                      A                      A
 Frequencies --    167.6666               170.9011               175.4134
 Red. masses --     28.0609                28.6054                28.9462
 Frc consts  --      0.4648                 0.4923                 0.5248
 IR Inten    --      8.6311                 5.0542                 2.1310

                     22                     23                     24
                      A                      A                      A
 Frequencies --    177.8206               179.8052               186.8990
 Red. masses --     28.0346                28.1432                28.4178
 Frc consts  --      0.5223                 0.5361                 0.5849
 IR Inten    --      4.9052                 0.8983                 4.3530

                     25                     26                     27
                      A                      A                      A
 Frequencies --    187.4797               188.6583               190.2856
 Red. masses --     28.1294                28.1069                28.0266
 Frc consts  --      0.5825                 0.5894                 0.5979
 IR Inten    --      2.0492                 3.4954                27.4844

                     28                     29                     30
                      A                      A                      A
 Frequencies --    193.3697               196.4314               199.0175
 Red. masses --     28.0256                28.0600                28.3924
 Frc consts  --      0.6174                 0.6379                 0.6626
 IR Inten    --      5.9189                 8.8414                 3.6444

                     31                     32                     33
                      A                      A                      A
 Frequencies --    210.7825               214.7515               232.7094
 Red. masses --     28.2068                28.9925                28.5221
 Frc consts  --      0.7384                 0.7878                 0.9100
 IR Inten    --      3.4819                22.3450                 1.3697

                     34                     35                     36
                      A                      A                      A
 Frequencies --    242.4165               248.8416               254.0329
 Red. masses --     28.1239                28.1826                28.0198
 Frc consts  --      0.9738                 1.0282                 1.0654
 IR Inten    --     10.0213                11.2461                28.6722

                     37                     38                     39
                      A                      A                      A
 Frequencies --    272.6612               274.6073               280.0558
 Red. masses --     28.0301                28.0982                28.1044
 Frc consts  --      1.2278                 1.2484                 1.2987
 IR Inten    --     17.4893                16.6732                21.1934

                     40                     41                     42
                      A                      A                      A
 Frequencies --    291.6782               296.2015               298.4808
 Red. masses --     28.1594                28.0130                28.2408
 Frc consts  --      1.4115                 1.4481                 1.4824
 IR Inten    --     42.4004                10.8540                 2.0801

                     43                     44                     45
                      A                      A                      A
 Frequencies --    306.8919               316.4332               321.4318
 Red. masses --     28.1274                28.0074                28.0126
 Frc consts  --      1.5608                 1.6523                 1.7052
 IR Inten    --      0.7304                 2.4635                 4.2264

                     46                     47                     48
                      A                      A                      A
 Frequencies --    326.6281               341.0080               365.6808
 Red. masses --     28.0574                27.9859                27.9783
 Frc consts  --      1.7636                 1.9174                 2.2043
 IR Inten    --      4.1175                 4.6030                20.5277

                     49                     50                     51
                      A                      A                      A
 Frequencies --    369.9322               379.6667               387.1398
 Red. masses --     27.9808                27.9774                27.9861
 Frc consts  --      2.2561                 2.3761                 2.4713
 IR Inten    --     23.1257                 4.8041                 1.6846

                     52                     53                     54
                      A                      A                      A
 Frequencies --    389.2928               394.4032               397.1941
 Red. masses --     28.0066                27.9882                27.9904
 Frc consts  --      2.5007                 2.5651                 2.6017
 IR Inten    --      4.8976                 5.7271                30.1995

                     55                     56                     57
                      A                      A                      A
 Frequencies --    406.3893               413.9069               418.0375
 Red. masses --     27.9789                27.9886                27.9907
 Frc consts  --      2.7225                 2.8251                 2.8820
 IR Inten    --      4.9281                32.0167                11.6392

                     58                     59                     60
                      A                      A                      A
 Frequencies --    425.0937               425.8135               431.3012
 Red. masses --     27.9875                27.9880                27.9792
 Frc consts  --      2.9798                 2.9899                 3.0665
 IR Inten    --      7.8081                36.6905                26.4289

                     61                     62                     63
                      A                      A                      A
 Frequencies --    433.1251               436.7013               445.7368
 Red. masses --     27.9792                27.9781                27.9854
 Frc consts  --      3.0925                 3.1437                 3.2760
 IR Inten    --     72.9233                11.0700                27.8765

                     64                     65                     66
                      A                      A                      A
 Frequencies --    452.9598               462.4045               466.2646
 Red. masses --     27.9796                28.0212                27.9975
 Frc consts  --      3.3823                 3.5301                 3.5862
 IR Inten    --     20.7921                32.9980                43.8403

                     67                     68                     69
                      A                      A                      A
 Frequencies --    473.8399               477.3174               478.3705
 Red. masses --     27.9773                27.9880                27.9793
 Frc consts  --      3.7010                 3.7570                 3.7724
 IR Inten    --     10.7495                71.4561                38.0838

                     70                     71                     72
                      A                      A                      A
 Frequencies --    482.2779               487.6453               488.8793
 Red. masses --     27.9814                27.9838                27.9773
 Frc consts  --      3.8345                 3.9207                 3.9397
 IR Inten    --    138.2943                13.2018                 9.5022

                     73                     74                     75
                      A                      A                      A
 Frequencies --    490.6721               492.9973               495.2992
 Red. masses --     27.9818                27.9976                27.9901
 Frc consts  --      3.9692                 4.0092                 4.0457
 IR Inten    --      2.8342                 6.9969                 1.3519

                     76                     77                     78
                      A                      A                      A
 Frequencies --    496.4153               500.8925               505.2913
 Red. masses --     27.9829                27.9788                27.9806
 Frc consts  --      4.0629                 4.1359                 4.2091
 IR Inten    --      0.7618                12.0077                28.3368

                     79                     80                     81
                      A                      A                      A
 Frequencies --    507.2993               509.5688               512.4766
 Red. masses --     27.9791                27.9808                27.9776
 Frc consts  --      4.2424                 4.2807                 4.3292
 IR Inten    --     25.9569                 4.6753                 7.0246

                     82                     83                     84
                      A                      A                      A
 Frequencies --    514.3116               516.8277               520.0937
 Red. masses --     27.9790                27.9801                27.9824
 Frc consts  --      4.3605                 4.4034                 4.4596
 IR Inten    --     26.9316                15.8334                40.4892

                     85                     86                     87
                      A                      A                      A
 Frequencies --    522.3515               524.7271               528.9659
 Red. masses --     27.9783                27.9786                27.9816
 Frc consts  --      4.4978                 4.5388                 4.6129
 IR Inten    --      9.0914                12.5799                15.5021

                     88                     89                     90
                      A                      A                      A
 Frequencies --    530.0638               532.5197               535.2679
 Red. masses --     27.9771                27.9795                27.9782
 Frc consts  --      4.6314                 4.6748                 4.7229
 IR Inten    --      0.8416                 1.6437                 1.4027

                     91                     92                     93
                      A                      A                      A
 Frequencies --    536.1546               537.0694               539.0980
 Red. masses --     27.9784                27.9772                27.9786
 Frc consts  --      4.7386                 4.7546                 4.7908
 IR Inten    --      5.1248                 2.1657                24.5104

                     94                     95                     96
                      A                      A                      A
 Frequencies --    540.9250               544.3255               547.9645
 Red. masses --     27.9771                27.9777                27.9772
 Frc consts  --      4.8231                 4.8840                 4.9495
 IR Inten    --      5.3519                12.4047                12.3688

                     97                     98                     99
                      A                      A                      A
 Frequencies --    549.0232               550.2300               554.1731
 Red. masses --     27.9770                27.9770                27.9772
 Frc consts  --      4.9686                 4.9904                 5.0623
 IR Inten    --     13.8726                20.9053                 6.0956

                    100                    101                    102
                      A                      A                      A
 Frequencies --    556.0737               556.4950               557.7951
 Red. masses --     27.9770                27.9772                27.9773
 Frc consts  --      5.0970                 5.1048                 5.1287
 IR Inten    --     29.7738                21.0019                14.9471

                    103                    104                    105
                      A                      A                      A
 Frequencies --    560.1896               561.8840               568.6064
 Red. masses --     27.9775                27.9770                27.9777
 Frc consts  --      5.1728                 5.2041                 5.3295
 IR Inten    --      3.6233                12.4746                 2.7343

 - Thermochemistry -
 -------------------
 Temperature   298.150 Kelvin.  Pressure   1.00000 Atm.
 Atom     1 has atomic number  1 and mass   1.00783

 Molecular mass:  1369.41854 amu.
 Principal axes and moments of inertia in atomic units:
                           1         2         3
     Eigenvalues --  ******************************
           X            0.99995   0.00885  -0.00347
           Y           -0.00886   0.99996  -0.00257
           Z            0.00344   0.00260   0.99999
 This molecule is an asymmetric top.
 Rotational symmetry number  1.
 Warning -- assumption of classical behavior for rotation
           may cause significant error
 Rotational temperatures (Kelvin)      0.00319     0.00057     0.00052
 Rotational constants (GHZ):           0.06643     0.01186     0.01077
    1 imaginary frequencies ignored.
 Zero-point vibrational energy     221837.7 (Joules/Mol)
                                   53.02048 (Kcal/Mol)
 Warning -- explicit consideration of 104 degrees of freedom as
           vibrations may cause significant error
 Vibrational temperatures:     37.29    51.69    53.49    93.38   106.03
          (Kelvin)            111.32   132.61   161.15   188.33   195.49
                              204.42   209.32   210.58   224.63   228.56
                              231.44   235.80   241.23   245.89   252.38
                              255.84   258.70   268.91   269.74   271.44
                              273.78   278.22   282.62   286.34   303.27
                              308.98   334.82   348.78   358.03   365.50
                              392.30   395.10   402.94   419.66   426.17
                              429.45   441.55   455.28   462.47   469.95
                              490.63   526.13   532.25   546.26   557.01
                              560.11   567.46   571.47   584.70   595.52
                              601.46   611.61   612.65   620.55   623.17
                              628.32   641.32   651.71   665.30   670.85
                              681.75   686.75   688.27   693.89   701.61
                              703.39   705.97   709.31   712.63   714.23
                              720.67   727.00   729.89   733.16   737.34
                              739.98   743.60   748.30   751.55   754.97
                              761.06   762.64   766.18   770.13   771.41
                              772.72   775.64   778.27   783.16   788.40
                              789.92   791.66   797.33   800.07   800.67
                              802.54   805.99   808.43   818.10

 Zero-point correction=                           0.084494 (Hartree/Particle)
 Thermal correction to Energy=                    0.128009
 Thermal correction to Enthalpy=                  0.128953
 Thermal correction to Gibbs Free Energy=         0.012686
 Sum of electronic and zero-point Energies=          -6439.738363
 Sum of electronic and thermal Energies=             -6439.694848
 Sum of electronic and thermal Enthalpies=           -6439.693903
 Sum of electronic and thermal Free Energies=        -6439.810171

                     E (Thermal)             CV                S
                      KCal/Mol        Cal/Mol-Kelvin    Cal/Mol-Kelvin
 Total                   80.327            164.317            244.705
 Electronic               0.000              0.000              0.000
 Translational            0.889              2.981             47.519
 Rotational               0.889              2.981             41.756
 Vibrational             78.549            158.356            155.431
 Vibration     1          0.593              1.985              6.120
 Vibration     2          0.594              1.982              5.472
 Vibration     3          0.594              1.982              5.404
 Vibration     4          0.597              1.971              4.302
 Vibration     5          0.599              1.966              4.052
 Vibration     6          0.599              1.964              3.957
 Vibration     7          0.602              1.955              3.614
 Vibration     8          0.607              1.940              3.234
 Vibration     9          0.612              1.922              2.933
 Vibration    10          0.614              1.918              2.861
 Vibration    11          0.616              1.911              2.776
 Vibration    12          0.617              1.908              2.730
 Vibration    13          0.617              1.907              2.719
 Vibration    14          0.620              1.896              2.596
 Vibration    15          0.621              1.893              2.563
 Vibration    16          0.622              1.890              2.540
 Vibration    17          0.623              1.887              2.504
 Vibration    18          0.624              1.882              2.461
 Vibration    19          0.626              1.878              2.426
 Vibration    20          0.627              1.873              2.377
 Vibration    21          0.628              1.870              2.351
 Vibration    22          0.629              1.867              2.330
 Vibration    23          0.632              1.858              2.258
 Vibration    24          0.632              1.857              2.253
 Vibration    25          0.633              1.855              2.241
 Vibration    26          0.634              1.853              2.225
 Vibration    27          0.635              1.849              2.195
 Vibration    28          0.636              1.845              2.166
 Vibration    29          0.637              1.841              2.142
 Vibration    30          0.643              1.824              2.037
 Vibration    31          0.645              1.819              2.003
 Vibration    32          0.653              1.791              1.858
 Vibration    33          0.659              1.775              1.785
 Vibration    34          0.662              1.765              1.739
 Vibration    35          0.665              1.756              1.702
 Vibration    36          0.676              1.724              1.579
 Vibration    37          0.677              1.720              1.567
 Vibration    38          0.680              1.710              1.533
 Vibration    39          0.687              1.689              1.464
 Vibration    40          0.690              1.681              1.438
 Vibration    41          0.692              1.677              1.425
 Vibration    42          0.697              1.661              1.379
 Vibration    43          0.703              1.642              1.328
 Vibration    44          0.707              1.632              1.303
 Vibration    45          0.710              1.622              1.277
 Vibration    46          0.721              1.594              1.207
 Vibration    47          0.739              1.543              1.098
 Vibration    48          0.742              1.534              1.080
 Vibration    49          0.750              1.514              1.040
 Vibration    50          0.756              1.498              1.011
 Vibration    51          0.757              1.493              1.003
 Vibration    52          0.761              1.482              0.983
 Vibration    53          0.764              1.476              0.973
 Vibration    54          0.771              1.456              0.939
 Vibration    55          0.777              1.440              0.913
 Vibration    56          0.781              1.431              0.899
 Vibration    57          0.787              1.416              0.875
 Vibration    58          0.788              1.414              0.872
 Vibration    59          0.792              1.402              0.854
 Vibration    60          0.794              1.398              0.849
 Vibration    61          0.797              1.390              0.837
 Vibration    62          0.805              1.370              0.809
 Vibration    63          0.812              1.354              0.787
 Vibration    64          0.820              1.333              0.759
 Vibration    65          0.824              1.325              0.748
 Vibration    66          0.831              1.308              0.727
 Vibration    67          0.834              1.300              0.717
 Vibration    68          0.835              1.298              0.714
 Vibration    69          0.839              1.289              0.704
 Vibration    70          0.844              1.277              0.690
 Vibration    71          0.845              1.275              0.687
 Vibration    72          0.846              1.271              0.682
 Vibration    73          0.849              1.266              0.676
 Vibration    74          0.851              1.260              0.670
 Vibration    75          0.852              1.258              0.667
 Vibration    76          0.856              1.248              0.656
 Vibration    77          0.861              1.238              0.645
 Vibration    78          0.862              1.234              0.640
 Vibration    79          0.865              1.229              0.635
 Vibration    80          0.868              1.222              0.628
 Vibration    81          0.869              1.218              0.623
 Vibration    82          0.872              1.213              0.617
 Vibration    83          0.875              1.205              0.610
 Vibration    84          0.877              1.201              0.605
 Vibration    85          0.880              1.195              0.599
 Vibration    86          0.884              1.186              0.590
 Vibration    87          0.885              1.183              0.587
 Vibration    88          0.887              1.178              0.582
 Vibration    89          0.890              1.172              0.576
 Vibration    90          0.891              1.170              0.574
 Vibration    91          0.892              1.168              0.572
 Vibration    92          0.894              1.164              0.567
 Vibration    93          0.896              1.160              0.563
 Vibration    94          0.899              1.152              0.556
 Vibration    95          0.903              1.144              0.548
 Vibration    96          0.904              1.142              0.546
 Vibration    97          0.906              1.139              0.544
 Vibration    98          0.910              1.131              0.536
 Vibration    99          0.912              1.126              0.532
 Vibration   100          0.912              1.125              0.531
 Vibration   101          0.913              1.123              0.528
 Vibration   102          0.916              1.117              0.523
 Vibration   103          0.918              1.114              0.520
 Vibration   104          0.925              1.099              0.507

 1\1\GINC-NODE-H00A-038\Freq\RB3LYP\Gen\Bi2H28Si33\ROOT\22-Feb-2022\0\\
 # freq b3lyp/gen pseudo=read\\f10g1_TS_1_m1\\0,1\H,-7.677257,1.249178,
 -4.899835\H,-7.677825,-1.23627,-4.900025\H,-3.838418,1.249726,-4.89972
 8\H,-3.838998,-1.235676,-4.899728\H,0.000355,1.250627,-4.899441\H,-0.0
 00229,-1.234785,-4.899728\H,3.839185,1.251139,-4.899409\H,3.838612,-1.
 234282,-4.899485\H,7.678037,1.251987,-4.89912\H,7.677465,-1.23336,-4.8
 99374\H,10.819322,0.009575,-3.608826\H,-10.819253,0.005591,-3.609665\H
 ,-9.597732,-3.051796,-2.029087\H,-5.759088,-3.05066,-2.028903\H,-1.920

 Normal termination of Gaussian 16 at Tue Feb 22 16:10:31 2022.
